84
Lattice="17.108599718724335 0.0 0.0 -4.269160213612439 7.403643876679644 0.0 0.0895635195275219 0.05165086255082877 47.428887855240575" Properties=species:S:1:pos:R:3:forces:R:3 energy=-184212.43966534844 free_energy=-184212.43966534844 stress="-0.004446637330410945 0.009131995640773747 -0.0010393544204057793 0.009131995640773747 -0.016119175092441575 -0.0009502931317314325 -0.0010393544204057793 -0.0009502931317314325 -0.0009457023436554353" pbc="T T T"
Te      12.93245406       6.81017028      14.51327502       0.09196193      -0.28427582       0.58434901
Te       2.43917074       3.05005617      14.96942004      -0.78841259       0.57822567       0.01472214
Te       0.15949682       6.02067039      14.88661495      -0.57368793       0.06355433      -0.26905720
Te      15.37539831       2.62516996      14.64652991      -0.81761466       0.16738679       0.50650269
Te       0.09071408       1.49678258      21.70775379      -0.39346646      -0.06548420       0.05880396
Te       2.02137662       4.90030896      21.65700197       0.55708761      -0.09605307       0.03362746
Te       4.09238213       1.60449842      21.91897748       0.03587383       0.33437402      -0.09058305
Te      -2.32741585       4.83197501      21.94859883       0.57039872       1.16046407       1.21345965
Te       1.93516319       2.03576619      25.36357840       0.89899830      -0.02740050       0.01923211
Te       4.57775210       7.04555449      25.59285896       0.45765482      -0.41216583      -0.26327068
Te       7.16249270       1.98346544      25.67239086       0.36184986      -0.19409155       0.13943324
Te       0.37978750       5.73330141      24.89251976       0.01685949       0.25584765       0.22823734
Te       2.23505166      -0.14360765      18.41880544      -0.44396010       0.14752964      -0.32651493
Te       4.33706667       4.12707574      18.30287524       0.71517703      -0.90075488       0.39320781
Te       6.41691986       0.69899562      18.50640708      -0.05745310      -0.21686895      -0.40419336
Te      -0.24224453       4.05416219      18.54794933      -0.00132412      -0.26082402      -0.41839048
Te      -0.04860144       0.75467116      32.50937028      -0.28802295       1.06002778       0.10498174
Te       2.13668564       4.67205973      32.69176212      -0.36778885      -0.17629874      -0.31686918
Te       4.65504440       0.96216994      32.49758536      -0.49549117       0.31815036      -0.26442845
Te      -1.73662846       5.09216382      32.69829637      -0.68478813      -0.43961596      -0.65321216
Te       0.22195223       3.29775917      28.84558229      -0.46319323       1.02709992       0.85095776
Te       2.42971296       7.21177402      28.94870506      -0.72355034      -0.29643971      -0.52051521
Te       4.22547052       3.49713156      28.73376288       0.61372438      -0.55290005       0.59034046
Te      -1.98692975       7.18172424      28.93354662      -1.07153064      -0.47413071       0.90907163
Sb       0.18463809       1.52957086      16.35022043       0.37470332       0.04986963       0.37968894
Sb       2.30772595       5.54176258      16.81384404      -0.46871776      -0.29942296      -0.28526930
Sb       4.30312583       1.26779190      15.95546906      -0.32855844      -0.79212654       1.29472605
Sb      -2.40265149       5.07900989      16.26719957       0.60059427      -0.06348002      -0.43319874
Sb      -0.32525786       1.00585943      27.21927048       0.34632322       0.32244436      -0.61564165
Sb       2.42968334       4.59242329      26.64779236      -0.17953139      -0.02841866      -0.48202348
Sb       4.19982448       0.88775186      27.41691786       0.77211693       0.49900819      -1.18883156
Sb       6.14562931       4.56083488      25.79558701      -0.86667748       0.61528736       0.57228128
Sb      12.87035345       6.20753899      20.34622187      -0.45930547       0.64975068      -0.13511121
Sb       2.08279323       2.43768179      19.84618167       0.07108329       0.31168635       0.59937763
Sb       4.09396890      -1.07936525      20.44172081       0.14291605       0.07296611       0.24299805
Sb      14.73847448       2.61541898      20.35738423       0.28634710      -1.26505732      -0.69695279
Sb       1.96309471       2.21340439      30.99255955       0.34972865      -0.46713088       0.10003263
Sb       4.20324115       5.67365483      31.06207773       0.19022898       0.52694811      -0.06795966
Sb       6.44274521       2.18781279      30.55646284       0.01244748       0.53188334       0.74583975
Sb       0.21889224       6.10606712      30.75645752       0.01822578      -0.50856035       0.19854958
Te       4.14448322       6.53855435      14.89184696       0.46627959      -0.40685342      -0.23927020
Te      11.06884391       2.71049322      14.76838726      -0.16542966       0.09680820       0.20625261
Te       8.67715139       6.60300860      14.85917707      -0.18153582       0.13043643       0.22887626
Te       6.27233907       2.73971766      14.86775332       0.92589076       0.69439171      -0.95971336
Te       8.01168488       1.15917785      22.46864769       0.03663282      -0.30682594      -0.22259968
Te      10.00621281       5.89801158      22.06705209       0.67697866       0.87298697       0.26956731
Te      12.47304770       0.93187313      21.76408692       0.72261549      -0.49921207       0.42957555
Te       5.39186338       6.11235622      22.64884790       0.09218253       0.33592106       0.48802058
Te      11.59141516       2.85788044      24.78782669      -0.64370550       0.06897344       0.31485601
Te      13.01909280       6.04561471      25.59748357       0.13796231       0.16373351      -0.79050469
Te      14.73417096       2.29180996      25.63020992       0.49842506      -0.40282502      -0.18749178
Te       8.92346071       6.27567714      25.16767151       0.13673178      -0.12292367       0.01933084
Te      10.63879891       0.24403303      18.25126926       0.14069796       0.71198449      -0.35399514
Te      12.43677206       3.88513370      18.64903542       0.21225434      -0.48500802      -0.11892355
Te      15.08870697       0.22238219      18.51697674      -0.02356956      -0.28106811      -0.55140881
Te       8.79050133       3.99049216      18.12081369      -0.03841691      -0.73523112       0.12051506
Te       8.44603124       0.94362977      32.44716577      -0.19959525      -0.11865898      -0.16957042
Te      10.98235213       4.18604010      32.58064589       0.23634223      -0.30032413      -0.11703610
Te      12.68660440       0.92455962      32.17395925       0.02186466       0.99283714       0.76654407
Te       6.45651367       4.70225680      32.51751872       0.42352831      -0.60421696      -0.04582246
Te       8.65929104       3.45842411      28.73530563       0.58192678      -0.70927763       0.00199492
Te      10.88453978       7.19813776      29.13983796      -0.40330941      -0.17908068       0.48825300
Te      12.90073007       3.64777482      29.13779822       0.20984264      -1.01311826      -1.26895074
Te       7.04250702       5.79135425      29.00063215      -1.12474270       1.07163503      -1.17302519
Sb       8.54580084       1.62987470      16.18884572       0.39658161      -0.21363425       0.29709637
Sb      10.74480086       5.21192821      16.35937829       0.42450970       0.28350475      -0.27182423
Sb      13.08238326       1.58018689      16.55732032      -0.02761828      -0.13095400      -0.39216317
Sb       6.66572113       5.25049033      16.63602627      -0.75310594       0.21959561      -0.79667200
Sb       9.62773274       0.70274803      28.24689653      -0.26443308      -0.01787328       0.27242458
Sb      10.74353502       5.04479459      27.05892598       0.25068564      -0.38634784       0.07129618
Sb      12.30574851       0.67264103      27.42274242       0.39483403       0.05680775       0.42921405
Sb      -1.87694556       4.76238467      26.81852150       0.15892066      -0.25554811       0.33782239
Sb       8.45401157      -0.92809122      19.91071399      -0.49629130       0.14252756       0.35280935
Sb      11.54622401       3.47835077      21.89726521      -0.34353743       0.36657786      -0.25689254
Sb      12.50851403      -1.30220185      19.88806526       0.00632080       0.73910088       0.40867608
Sb       6.40991005       3.51936358      22.98944429      -0.44263598       0.12092130      -0.73115335
Sb      10.47193001       1.96820108      30.74683848       0.07514640       0.49347903      -0.20584638
Sb      12.90786385       5.76003425      30.95621509       0.16307839       0.42231038       0.78359562
Sb      14.85217474       2.64537029      31.10045871       0.83266487      -0.40171019       0.02434115
Sb       8.94897113       5.84601545      31.17909663      -0.23320497      -0.87818574       0.32670417
Cr       4.06486084       3.48561916      24.35956322      -1.39331988       0.81994717      -0.60931802
Cr       3.19392799       5.18702364      24.06242900       0.90003780      -1.10435823      -0.22055566
Cr       9.06436200       3.62867079      24.43133994      -0.72565556       0.15430244       1.54563049
Cr       8.92452823       3.61693640      22.65994592       0.32594569      -0.27655146      -0.84905694
84
Lattice="17.108599718724335 0.0 0.0 -4.269160213612439 7.403643876679644 0.0 0.0895635195275219 0.05165086255082877 47.428887855240575" Properties=species:S:1:pos:R:3:forces:R:3 energy=-184214.04639797204 free_energy=-184214.04639797204 stress="-0.005345513635691208 0.009342253734654422 0.00036450857323418233 0.009342253734654422 -0.01582720097080815 0.0010411907356361783 0.00036450857323418233 0.0010411907356361783 -0.001882223111158876" pbc="T T T"
Te      13.29095203       5.91721904      15.12679287      -0.61601601       0.16820928       0.15926081
Te       1.99056953       2.50363237      14.50110090       0.04143050       0.23193639       0.57693652
Te       0.20544793       5.69350903      15.00034133      -0.24920623      -0.27905160       0.03210691
Te      14.45536071       2.48769126      14.84774138       0.49848677       0.15628759       0.20811743
Te       0.44817936       0.86089840      21.88680325      -0.31027224       0.38822732       0.02139492
Te       1.80280889       4.29033237      21.93381298       0.60035233       0.16106573       0.17012193
Te       4.80624524       1.08605412      22.12325760      -0.34938361       0.54138614      -0.10027945
Te      -2.50568377       4.85384633      22.16413093       0.47966578      -0.04192441      -0.39921982
Te       2.58843096       2.20312781      25.48400109      -0.93482740       1.23116504      -1.22930176
Te       3.96420969       7.21170132      25.63849331      -0.34805255       0.79509925      -0.35198068
Te       6.78239802       2.32741930      25.84364608      -0.38734852       0.40601524      -0.05610147
Te      -0.27410878       6.84840457      25.28664225       0.07642450      -0.41481818      -1.06368338
Te       1.89026853      -0.43449726      18.51670742       0.23912211       0.33715647      -0.10325730
Te       4.39704875       3.06310193      17.87442680       0.66612501      -0.11861193       0.99589316
Te       6.07463445      -0.39552232      18.55039951       0.62455721       1.04311764      -0.42434952
Te       0.10162022       3.35396754      18.67449316       0.26513653      -0.05652622      -0.11586265
Te      -0.08322385       1.46041251      32.33169465      -0.11416932      -0.68388002      -0.17599690
Te       2.27949411       4.99446735      32.71271392      -0.10712013      -0.03444430      -0.38948536
Te       4.46040381       1.17921602      32.20540880       0.05408367       0.55615661       0.49546135
Te      -1.49288937       4.97222214      32.08407268      -0.90674067      -0.44315251       0.51337860
Te       0.18512770       3.76468022      28.64058930       0.51773250      -0.07403440       0.09240211
Te       3.06568398       7.42534028      29.31685268      -0.30212853       0.19032874      -0.15565124
Te       4.38191828       3.81748165      29.08984154       0.42910092       1.13506774      -0.56313510
Te      -1.87721823       7.61934904      29.08720763      -0.62570778      -0.70735805      -0.29584604
Sb      -0.16874783       1.20522722      15.95203803       0.26447935      -0.37134623       0.00076747
Sb       2.32413766       4.81109356      16.74496402      -0.62609319      -0.69515610      -0.55102932
Sb       4.36792815       1.11945651      15.77875531      -0.23252157       0.07461290      -0.67354392
Sb      -1.86109875       4.57803272      16.82217538      -0.51706042       0.23341220      -0.70791212
Sb       0.03376556       1.16861426      27.01598788       0.27956299       0.49315713      -0.19648885
Sb       1.95678274       5.18868900      25.74328999       0.19398202      -0.94437056       0.49509420
Sb       4.36911109       1.37607262      27.26790847       1.30700127      -0.17354252       1.73518045
Sb       5.59120666       5.04284000      25.88309993       1.49940257      -1.14421213       0.94527868
Sb      12.46367500       5.82763339      20.46092781       0.78127957       0.79204221       0.24210150
Sb       2.66277444       1.83239718      20.21018233      -0.53621642       0.31991697       0.48482547
Sb       4.04089665      -1.53131930      20.19874321      -0.59958357      -0.51440087       0.88100804
Sb      15.05787213       2.34128284      20.49814673      -0.32600894       0.16897984       0.90621899
Sb       2.41903215       2.67902623      30.72904563      -0.61981687      -0.24299033       0.65787716
Sb       4.66093575       6.22287759      31.66952628      -0.02262082       0.40193310       0.01639001
Sb       6.54280803       2.71282271      30.65877415       0.71151835      -0.54131517       0.64647586
Sb       0.37734219       6.27910550      30.53003138       0.56998297       0.02935223      -0.25201825
Te       4.28512463       5.99843987      15.12943746       0.11205767       0.61989554      -0.57175472
Te      10.47599378       2.45731828      15.25638299       0.34044620      -0.15868772      -0.55481758
Te       8.97756813       6.08581926      15.10238367      -0.70150493       0.21199003      -0.23941393
Te       6.88769191       2.53347483      14.51603534      -0.57486139      -0.32581919       0.59112413
Te       7.82787010       1.65814514      21.80464878      -0.83713962      -0.08013846      -0.31709055
Te      10.31975956       6.07397378      22.47500560       0.01550195       0.35242137       0.51621195
Te      12.86117831       1.05217050      22.31306094      -0.35008398       0.16936654      -0.53021109
Te       5.16558998       6.80184830      22.21139973      -0.13019758      -0.07699965       0.21683013
Te      10.21861168       2.76779843      24.86299322       0.01590664      -0.13072517      -0.25915306
Te      13.12589393       6.23274552      25.28374720      -0.92057860      -0.15020333      -0.07270668
Te      15.40038687       2.67499196      25.24982837       0.22409015      -0.41623975      -0.13669244
Te       8.27350308       5.91309918      24.97621049      -0.45083805       0.08190146      -0.12282211
Te      10.31525742      -0.28390035      18.56599170       0.35295359      -0.27796171      -0.26987867
Te      12.68628722       3.44388985      18.95679124       0.17803321      -1.22318999      -0.80423490
Te      14.94277680       0.13382741      18.53029068       0.25705452      -0.45542850      -0.31591813
Te       8.50554847       3.63629411      18.54404305       0.26954983      -0.00177072       0.06912154
Te       8.70638542       1.51350253      32.85935784      -0.09651690      -0.36255460      -0.54954759
Te      11.13920057       4.40399292      32.57108885       0.23284656      -0.13209068      -0.27626503
Te      12.76384184       1.69659229      32.04875559       0.23238042      -0.73970767       0.25405096
Te       7.15436707       4.79652474      32.78140895      -0.62529795      -0.21635036       0.08362050
Te       8.50197510       4.55663273      28.95297504       0.07898969      -0.66839015       0.05395434
Te      11.08981222       7.24050489      28.91887656       0.35538893      -0.30622430       0.22174993
Te      12.52652226       3.42793255      28.46024304       0.49984302       0.17335946       0.26274360
Te       6.74380916       7.09804927      29.12279956       0.34591982      -0.85015017      -0.31909576
Sb       8.37927509       1.11322745      16.62647258      -0.26588935      -0.13660091       0.07957179
Sb      10.76254588       4.79566034      16.82279092       0.31778886       0.13884780       0.56163846
Sb      12.68210299       1.12104345      16.64964557      -0.15109731      -0.12134399       0.24472428
Sb       6.60910926       4.72847965      16.56180019       0.01184841       0.23905603      -0.03255891
Sb       9.22859983       1.61316914      27.80206530      -0.46161380       0.56578796       0.40184800
Sb      10.79221380       4.92537026      26.76339740      -0.12647591       0.34627335      -0.63292384
Sb      13.16643362       0.84067712      27.62237376      -0.80354713       0.14338734      -0.71587534
Sb      -1.88166856       4.99715688      26.81040173      -0.21707567      -0.06788381       0.59102000
Sb       8.25827750      -2.03014631      19.90337869      -0.17906319       0.53906597       0.21630125
Sb      11.19909200       3.41867795      22.16927140       1.17569091      -1.19621089      -0.17720403
Sb      12.80609311      -1.10499810      20.20630370      -0.56714962       0.24353001       0.12072821
Sb       6.02043822       4.23399279      21.72108148       0.67680948      -1.20186089       0.06004631
Sb      10.37637152       2.20342606      30.55703405      -0.05718031       0.89347660       0.30016550
Sb      12.96687207       6.04731812      31.10387728       0.49138538       0.49008569       0.54703639
Sb      15.16000385       2.56203735      30.47619959       0.40920521       0.16218184       0.19780576
Sb       9.18886015       6.18539563      31.39740905      -0.27028979       0.63215662      -0.04592119
Cr       4.60662789       3.41137797      23.97456154       0.42687074      -0.32668514       0.12523381
Cr       3.84515060       5.01775639      23.78438816      -0.60313375       0.01389836      -0.99995678
Cr       7.81307059       3.59680621      23.69306148       1.13299183       0.55444554      -0.29713416
Cr       8.66720508       3.99510402      21.94832283      -1.13254857       0.67860000       0.05450045
82
Lattice="17.108599718724335 0.0 0.0 -4.269160213612439 7.403643876679644 0.0 0.0895635195275219 0.05165086255082877 47.428887855240575" Properties=species:S:1:pos:R:3:forces:R:3 energy=-179653.04631472775 free_energy=-179653.04631472775 stress="-0.0019180312581516547 0.009507522105390322 -0.0017059368490405815 0.009507522105390322 -0.013587814547336685 -0.0004407156552957368 -0.0017059368490405815 -0.0004407156552957368 0.003329239512713212" pbc="T T T"
Te      13.03200020       8.10804282      14.98603999      -0.41547227       0.13277125       0.30999508
Te       2.37210819       3.76506679      15.03669076       0.10496297       0.43613186      -0.52275155
Te       0.50543041       7.72842020      14.52298884       0.27719989      -0.82113039      -0.64304447
Te      16.03483440       3.70822083      14.96369385       0.16802802      -0.09258208      -0.15974572
Te       0.37011247       2.66758215      22.02216931      -0.04994085      -0.95964549      -0.32583076
Te       2.49837918       5.26206349      21.93515120       0.19056142       0.66085502      -0.35449599
Te       4.13922015       2.55303924      22.01809286      -0.71248251      -0.03966261      -0.34275453
Te      -2.29276604       5.83423789      22.27899154      -0.27168410       0.98612991       0.86375157
Te       2.19817861       0.95617967      25.12620504      -0.95416055       0.85958124      -0.26052603
Te       4.22836999       4.68023958      24.86163629       0.36592814       0.59524818       0.85183013
Te       6.35526429       1.40765193      25.18382174      -0.04505987      -0.40563626       0.30058253
Te      -0.15680824       4.86892873      24.77936680       0.32935703       0.10169536       0.38683970
Te       2.37642684       0.32941436      18.63639974       0.18250513       0.69795681       0.06840806
Te       4.49298802       4.95194165      18.14448935      -0.06552148      -0.01585008       0.08866192
Te       6.44879465       1.30889096      18.60913034       0.15296007       0.12287559      -0.15195425
Te       0.03519589       5.43325948      18.68247382      -0.09241342      -0.61400463       0.15694399
Te      -0.29939879      -0.21864993      32.69605236       0.18485049      -0.34268974      -0.05127885
Te       1.68830808       3.53281699      32.42187729       0.23440876       0.05745541       0.46641303
Te       4.20107159      -0.10808213      32.48867297       0.35235940       0.55871152       0.77212568
Te      -2.72289645       3.94993368      32.45298274       0.23264576       0.20748083      -0.00612848
Te       0.38955880       2.47932394      29.10499393      -1.05108703       0.36648736      -0.58440404
Te       2.14866731       5.84356004      28.94307501      -0.89614669       1.16705124      -0.38231893
Te       4.01274873       2.26771909      28.99547128       0.08671251       0.06593800      -0.30269906
Te      -2.05754989       6.00443381      28.76605122      -0.55795330       0.87372050       0.32313033
Sb       0.69512392       2.80918505      17.17848773      -0.21205585      -0.64593002      -0.17216261
Sb       2.24806236       6.39915982      16.66581291       0.58192832       0.31761686      -0.44113368
Sb       4.75838747       2.61355405      16.11514389      -0.04358251       0.38072664       1.19578306
Sb      -1.84366451       6.43396277      15.39738475      -0.37035661      -0.41165316       0.68942357
Sb      -0.19087991       0.18529428      27.34798454       0.45582085       0.11974219      -0.54908376
Sb       2.24905426       3.58288140      26.70911773      -0.18347855      -0.12379630      -1.08704236
Sb       4.22813862      -0.12127429      26.65773170       0.88522902      -0.23000780       0.28169135
Sb       6.13756802       3.53793815      27.10786192      -0.11455010       0.41797781      -0.39778514
Sb      12.82552227       7.06548239      20.43862070       0.52458244      -0.21862553      -0.17692275
Sb       2.27711512       3.22213419      19.52153873       0.14189584       0.38222560       0.90170079
Sb       4.57000083      -0.26439679      21.66072449      -0.09741241       0.12821577      -0.20398155
Sb      15.17235426       3.78412590      20.44992898       0.06942827       0.44348033      -0.08852385
Sb       1.87525874       0.98343674      31.21608297       0.32433155      -0.05139995      -0.48158099
Sb       3.94913097       4.82558794      31.01938322       0.09387998       0.28159673      -0.18358371
Sb       6.06897941       1.09894722      30.60418987       0.79886721      -0.04915152       0.63578676
Sb      -0.25434913       5.09676839      30.87825005      -0.02417094      -0.97827081      -0.51643050
Te       4.44354402       8.32623844      15.07492968       0.23592083      -1.02468694       0.34660116
Te      11.21635766       4.03037133      15.41584302      -0.36919833      -0.02655178      -0.04082089
Te       8.93782581       7.65019482      14.72919570       0.56453146      -0.47766880      -0.29681226
Te       7.21024853       3.60306715      15.06697331       0.69645271      -0.39058605      -0.24914170
Te       8.15559087       2.08837595      21.88029029       0.02929901       1.56825671       0.94620119
Te      10.60229077       5.62208856      22.42839579       0.28920334      -0.26125596      -0.17448200
Te      12.43495576       2.93254566      22.53485886      -0.01284780      -0.15070367      -0.42136807
Te       6.48182502       6.51485504      22.12106664      -0.43062378      -0.97241744       0.69277552
Te      10.43035426       1.12727101      25.03228761       0.51609240       0.04662284       0.37981699
Te      12.91244792       5.13795714      25.73547656      -0.34673049      -0.88535089      -0.46733631
Te      15.13637553       1.26876106      25.24637830       0.01474708      -0.12444345       0.23000703
Te       8.39982148       4.81845339      25.22966622       0.36838535       0.08010760       0.28623372
Te      11.22761044       0.88422751      18.83600171      -0.12913160       0.30576176      -0.05800717
Te      12.62816728       4.61162552      18.43538876       0.38242228       0.84792565       0.82521176
Te      15.40157069       1.69762598      18.57453651      -0.18595221      -1.21667327      -0.19311376
Te       8.55782935       5.45825856      18.84225099      -0.06555336       0.56196602      -0.26694144
Te       8.47898908      -0.02100059      32.59168343      -0.25615721      -0.22526283      -0.55010912
Te      10.50369159       3.96408593      32.53313325      -0.25636650      -0.27186099      -0.72254349
Te      12.73650482      -0.05819009      32.20075374      -0.30571882       0.45850508       0.39186723
Te       6.02183421       3.73177066      32.67018635       0.57300325      -0.72111448      -0.20059156
Te       8.32648359       2.49407645      28.73883012       0.09021615      -0.47870804       0.34785200
Te      10.51560243       6.60119391      29.05905273      -0.37086672      -0.34382874      -0.07956870
Te      12.79852610       2.45865665      28.85181695       0.29801348      -0.03969912       0.15488377
Te       6.28807408       6.30491577      28.75411205      -0.09752220      -0.12679370       0.21676019
Sb       9.04287090       2.74888989      17.27185229       0.12276323      -0.28640444      -0.26461768
Sb      11.08462358       6.64602783      16.79860985       0.07271774      -0.41400777      -0.84525942
Sb      13.69566630       2.57332130      16.19534833      -0.35514159       0.57072731       0.50848322
Sb       6.57448126       6.25739242      15.42324207      -1.08547450       1.16468376       0.72488294
Sb       8.44247966       0.09173941      26.94902490      -0.25027632      -0.20627729      -0.28845386
Sb      10.69944072       3.74328888      27.23617214       0.16589220       0.64304704      -0.66959600
Sb      13.05150207       0.05534982      26.97566032      -1.06050961       0.08051435      -0.80146813
Sb      -1.93813456       3.60225013      27.09959368      -0.26153287      -0.20170793      -0.34966155
Sb       8.75743660       0.05691354      20.25086973       0.22739505      -0.95521599      -1.22348464
Sb      10.37664708       3.59781724      20.14098409       0.48373763      -0.38944088       0.51015212
Sb      13.14442054       0.22724722      21.27142962       0.09664597       0.48869806      -0.05648277
Sb       6.48591962       3.99283533      20.32319716      -0.14597233      -0.12410484       0.28601491
Sb      10.41563159       1.26239932      30.87161903       0.39866343      -0.13803224       0.21686484
Sb      12.50162727       5.12277561      30.65276763       0.39719661      -0.79177148       0.40271395
Sb      15.07413207       1.48357454      31.11061366      -0.50751905       0.12440951      -0.28133679
Sb       8.01721503       4.82183541      30.96683367       0.30258825      -0.01180933       0.00102176
Cr       2.03506173       3.65484901      23.88433686      -0.13209351      -0.74633828       0.24749542
Cr      10.78439111       3.61330465      24.51011230      -0.28161421       0.69985351       0.87845365
86
Lattice="17.108599718724335 0.0 0.0 -4.269160213612439 7.403643876679644 0.0 0.0895635195275219 0.05165086255082877 47.428887855240575" Properties=species:S:1:pos:R:3:forces:R:3 energy=-188769.01798538282 free_energy=-188769.01798538282 stress="-0.002166851971870706 0.006908217896760675 0.0012909296069704291 0.006908217896760675 -0.01200950160680883 1.3772364227991774e-05 0.0012909296069704291 1.3772364227991774e-05 0.002518506338492096" pbc="T T T"
Te      12.48835951       7.41040033      14.32994900      -0.00357332       0.13573368       0.25880827
Te       1.28468504       4.18112405      14.36057262       0.38377828      -0.40220718       0.22426010
Te      -0.01366505       7.41885241      14.37221862       0.14595176      -0.00363323       0.44015563
Te      14.58208048       3.57751449      14.16730128      -0.60020295      -0.16988153      -0.49733620
Te      -0.18561855       2.06990118      21.45185571      -0.21522910      -0.22939537       0.86660138
Te       1.80125171       5.92986317      21.05641278      -0.18053824      -0.22986691       0.73890754
Te       3.70539813       2.65419593      22.52930589       0.21971285       0.05185581      -0.40286358
Te      -2.41757357       5.96489865      21.37902582      -0.31236178      -0.11169052       0.58393044
Te       2.15119087       0.48163360      25.09340382      -0.11114031       0.16089989       0.72776412
Te       5.33519171       5.78015364      24.93621181      -0.88616850      -0.00770020       0.25519382
Te       6.04754077       0.88083741      25.23383680      -0.17537212       0.13734139      -0.00630434
Te       0.74509897       4.55835982      25.15070638       0.24981995       0.45891646       0.28931955
Te       1.58921461       0.97621098      17.75358067       0.10692652      -0.04570702       0.19415043
Te       4.06385360       4.71616350      18.06376438      -0.01587091      -0.36204501      -0.55495205
Te       5.86918800       1.42952527      18.15814500      -0.03452632       0.41796136      -0.66011377
Te      -0.42040103       4.81038554      18.12720091       0.01256781       0.28920925      -0.46453843
Te       0.68666511       0.15181972      33.32785990      -0.09033185      -0.04856120      -0.23324714
Te       2.46041004       3.74822425      32.91095496       0.33980882       0.84149764       0.37264309