82
Lattice="17.108599718724335 0.0 0.0 -4.269160213612439 7.403643876679644 0.0 0.0895635195275219 0.05165086255082877 47.428887855240575" Properties=species:S:1:pos:R:3:forces:R:3 energy=-179653.04631472775 free_energy=-179653.04631472775 stress="-0.0019180312581516547 0.009507522105390322 -0.0017059368490405815 0.009507522105390322 -0.013587814547336685 -0.0004407156552957368 -0.0017059368490405815 -0.0004407156552957368 0.003329239512713212" pbc="T T T"
Te      13.03200020       8.10804282      14.98603999      -0.41547227       0.13277125       0.30999508
Te       2.37210819       3.76506679      15.03669076       0.10496297       0.43613186      -0.52275155
Te       0.50543041       7.72842020      14.52298884       0.27719989      -0.82113039      -0.64304447
Te      16.03483440       3.70822083      14.96369385       0.16802802      -0.09258208      -0.15974572
Te       0.37011247       2.66758215      22.02216931      -0.04994085      -0.95964549      -0.32583076
Te       2.49837918       5.26206349      21.93515120       0.19056142       0.66085502      -0.35449599
Te       4.13922015       2.55303924      22.01809286      -0.71248251      -0.03966261      -0.34275453
Te      -2.29276604       5.83423789      22.27899154      -0.27168410       0.98612991       0.86375157
Te       2.19817861       0.95617967      25.12620504      -0.95416055       0.85958124      -0.26052603
Te       4.22836999       4.68023958      24.86163629       0.36592814       0.59524818       0.85183013
Te       6.35526429       1.40765193      25.18382174      -0.04505987      -0.40563626       0.30058253
Te      -0.15680824       4.86892873      24.77936680       0.32935703       0.10169536       0.38683970
Te       2.37642684       0.32941436      18.63639974       0.18250513       0.69795681       0.06840806
Te       4.49298802       4.95194165      18.14448935      -0.06552148      -0.01585008       0.08866192
Te       6.44879465       1.30889096      18.60913034       0.15296007       0.12287559      -0.15195425
Te       0.03519589       5.43325948      18.68247382      -0.09241342      -0.61400463       0.15694399
Te      -0.29939879      -0.21864993      32.69605236       0.18485049      -0.34268974      -0.05127885
Te       1.68830808       3.53281699      32.42187729       0.23440876       0.05745541       0.46641303
Te       4.20107159      -0.10808213      32.48867297       0.35235940       0.55871152       0.77212568
Te      -2.72289645       3.94993368      32.45298274       0.23264576       0.20748083      -0.00612848
Te       0.38955880       2.47932394      29.10499393      -1.05108703       0.36648736      -0.58440404
Te       2.14866731       5.84356004      28.94307501      -0.89614669       1.16705124      -0.38231893
Te       4.01274873       2.26771909      28.99547128       0.08671251       0.06593800      -0.30269906
Te      -2.05754989       6.00443381      28.76605122      -0.55795330       0.87372050       0.32313033
Sb       0.69512392       2.80918505      17.17848773      -0.21205585      -0.64593002      -0.17216261
Sb       2.24806236       6.39915982      16.66581291       0.58192832       0.31761686      -0.44113368
Sb       4.75838747       2.61355405      16.11514389      -0.04358251       0.38072664       1.19578306
Sb      -1.84366451       6.43396277      15.39738475      -0.37035661      -0.41165316       0.68942357
Sb      -0.19087991       0.18529428      27.34798454       0.45582085       0.11974219      -0.54908376
Sb       2.24905426       3.58288140      26.70911773      -0.18347855      -0.12379630      -1.08704236
Sb       4.22813862      -0.12127429      26.65773170       0.88522902      -0.23000780       0.28169135
Sb       6.13756802       3.53793815      27.10786192      -0.11455010       0.41797781      -0.39778514
Sb      12.82552227       7.06548239      20.43862070       0.52458244      -0.21862553      -0.17692275
Sb       2.27711512       3.22213419      19.52153873       0.14189584       0.38222560       0.90170079
Sb       4.57000083      -0.26439679      21.66072449      -0.09741241       0.12821577      -0.20398155
Sb      15.17235426       3.78412590      20.44992898       0.06942827       0.44348033      -0.08852385
Sb       1.87525874       0.98343674      31.21608297       0.32433155      -0.05139995      -0.48158099
Sb       3.94913097       4.82558794      31.01938322       0.09387998       0.28159673      -0.18358371
Sb       6.06897941       1.09894722      30.60418987       0.79886721      -0.04915152       0.63578676
Sb      -0.25434913       5.09676839      30.87825005      -0.02417094      -0.97827081      -0.51643050
Te       4.44354402       8.32623844      15.07492968       0.23592083      -1.02468694       0.34660116
Te      11.21635766       4.03037133      15.41584302      -0.36919833      -0.02655178      -0.04082089
Te       8.93782581       7.65019482      14.72919570       0.56453146      -0.47766880      -0.29681226
Te       7.21024853       3.60306715      15.06697331       0.69645271      -0.39058605      -0.24914170
Te       8.15559087       2.08837595      21.88029029       0.02929901       1.56825671       0.94620119
Te      10.60229077       5.62208856      22.42839579       0.28920334      -0.26125596      -0.17448200
Te      12.43495576       2.93254566      22.53485886      -0.01284780      -0.15070367      -0.42136807
Te       6.48182502       6.51485504      22.12106664      -0.43062378      -0.97241744       0.69277552
Te      10.43035426       1.12727101      25.03228761       0.51609240       0.04662284       0.37981699
Te      12.91244792       5.13795714      25.73547656      -0.34673049      -0.88535089      -0.46733631
Te      15.13637553       1.26876106      25.24637830       0.01474708      -0.12444345       0.23000703
Te       8.39982148       4.81845339      25.22966622       0.36838535       0.08010760       0.28623372
Te      11.22761044       0.88422751      18.83600171      -0.12913160       0.30576176      -0.05800717
Te      12.62816728       4.61162552      18.43538876       0.38242228       0.84792565       0.82521176
Te      15.40157069       1.69762598      18.57453651      -0.18595221      -1.21667327      -0.19311376
Te       8.55782935       5.45825856      18.84225099      -0.06555336       0.56196602      -0.26694144
Te       8.47898908      -0.02100059      32.59168343      -0.25615721      -0.22526283      -0.55010912
Te      10.50369159       3.96408593      32.53313325      -0.25636650      -0.27186099      -0.72254349
Te      12.73650482      -0.05819009      32.20075374      -0.30571882       0.45850508       0.39186723
Te       6.02183421       3.73177066      32.67018635       0.57300325      -0.72111448      -0.20059156
Te       8.32648359       2.49407645      28.73883012       0.09021615      -0.47870804       0.34785200
Te      10.51560243       6.60119391      29.05905273      -0.37086672      -0.34382874      -0.07956870
Te      12.79852610       2.45865665      28.85181695       0.29801348      -0.03969912       0.15488377
Te       6.28807408       6.30491577      28.75411205      -0.09752220      -0.12679370       0.21676019
Sb       9.04287090       2.74888989      17.27185229       0.12276323      -0.28640444      -0.26461768
Sb      11.08462358       6.64602783      16.79860985       0.07271774      -0.41400777      -0.84525942
Sb      13.69566630       2.57332130      16.19534833      -0.35514159       0.57072731       0.50848322
Sb       6.57448126       6.25739242      15.42324207      -1.08547450       1.16468376       0.72488294
Sb       8.44247966       0.09173941      26.94902490      -0.25027632      -0.20627729      -0.28845386
Sb      10.69944072       3.74328888      27.23617214       0.16589220       0.64304704      -0.66959600
Sb      13.05150207       0.05534982      26.97566032      -1.06050961       0.08051435      -0.80146813
Sb      -1.93813456       3.60225013      27.09959368      -0.26153287      -0.20170793      -0.34966155
Sb       8.75743660       0.05691354      20.25086973       0.22739505      -0.95521599      -1.22348464
Sb      10.37664708       3.59781724      20.14098409       0.48373763      -0.38944088       0.51015212
Sb      13.14442054       0.22724722      21.27142962       0.09664597       0.48869806      -0.05648277
Sb       6.48591962       3.99283533      20.32319716      -0.14597233      -0.12410484       0.28601491
Sb      10.41563159       1.26239932      30.87161903       0.39866343      -0.13803224       0.21686484
Sb      12.50162727       5.12277561      30.65276763       0.39719661      -0.79177148       0.40271395
Sb      15.07413207       1.48357454      31.11061366      -0.50751905       0.12440951      -0.28133679
Sb       8.01721503       4.82183541      30.96683367       0.30258825      -0.01180933       0.00102176
Cr       2.03506173       3.65484901      23.88433686      -0.13209351      -0.74633828       0.24749542
Cr      10.78439111       3.61330465      24.51011230      -0.28161421       0.69985351       0.87845365
84
Lattice="17.108599718724335 0.0 0.0 -4.269160213612439 7.403643876679644 0.0 0.0895635195275219 0.05165086255082877 47.428887855240575" Properties=species:S:1:pos:R:3:forces:R:3 energy=-184215.35121335275 free_energy=-184215.35121335275 stress="-0.004289632378211838 0.007842902349033717 -9.365207675034407e-05 0.007842902349033717 -0.013564860606956698 -0.0005013140578989006 -9.365207675034407e-05 -0.0005013140578989006 6.794366352475943e-05" pbc="T T T"
Te      12.86592279       7.68774601      14.96682498       0.10547514       0.37920841      -0.36736025
Te       2.24846071       4.09676223      14.96849805      -0.14631068      -0.34049865      -0.01125269
Te       0.12114660       7.20601790      14.87924389       0.32177793       0.49423056      -0.26037356
Te      14.75429467       3.84008593      14.90337041       0.62088130      -0.73278651      -0.37374018
Te      -0.19956430       2.49599357      22.00619121       0.48709755       0.18073055       0.15210518
Te       2.74086022       5.42108707      22.34156261      -0.63279888       1.40434349       0.53208594
Te       3.95305706       2.84121606      22.10700560       0.06574645      -0.61108180      -0.73872550
Te      -1.76638010       6.62597410      22.00088946      -0.10456754       0.08263423      -0.14160479
Te       2.07341516       0.86566457      25.32863372      -0.07302190       0.52157424      -0.27431768
Te       4.62069138       5.18079484      25.60889727       0.05223787       0.42496941      -0.09896845
Te       5.20336531       1.26232684      24.69510229       0.39346594      -0.56397122       0.64028516
Te       0.06605994       4.67513857      25.34811481       0.17560532       0.08168138       0.06326431
Te       2.30623517       1.21551633      18.51060874      -0.18247402       0.50193744      -0.35108542
Te       4.25112790       4.95722568      18.35624710       0.19103528      -0.33257682       0.24239666
Te       6.16608359       1.27941704      18.67977074       0.35797958       0.24755404      -0.07090948
Te       0.06039535       5.52315544      18.40556298      -0.03644719      -0.63703323       0.38783420
Te       0.12023677      -0.71784420      32.34843637       0.23999988       0.10363834       0.20740395
Te       1.98367387       3.29524524      32.32999456       0.12834124       0.09111810      -0.08383468
Te       4.37077527      -0.17493909      32.39849758       0.00416802       0.35444174      -0.04089700
Te      -2.55013447       3.74467205      32.29651829       0.42699981      -0.07255705      -0.27886673
Te       0.07404297       2.37072145      29.03545909      -0.43811958      -0.34530584      -0.13836032
Te       2.26188225       6.05847607      28.51808173      -0.19702286       0.00874638       0.27256393
Te       4.10978162       2.14069157      28.83774976       0.42777089       0.09632998      -0.00722197
Te      -2.29913077       5.78020026      28.84041282       0.58189515       0.29371845      -0.07854206
Sb       0.16891436       2.72570588      16.63084894       0.10866536       0.28514820      -0.08285406
Sb       2.38759519       6.43562914      16.69105211      -0.31398055       0.49968464      -0.21555692
Sb       4.22720037       2.41697669      16.26813424       0.31787757      -0.31052498       0.20898981
Sb      -2.17985466       6.24563803      16.28172441      -0.19170325       0.33472241       0.68044939
Sb      -0.02048507      -0.01422719      27.16814226      -0.46044704      -0.33916630      -0.29433089
Sb       2.22050332       3.42701353      26.91126957      -0.54592568       0.15615287      -0.48195252
Sb       4.09701300      -0.33972319      27.17121429      -0.08906764      -0.60233902      -0.46084890
Sb       6.55381012       3.21285222      27.42407131       0.59939794       0.01432722      -0.17776659
Sb      13.06537883       7.70380307      20.22097792      -0.10746106      -0.18911081       0.02187135
Sb       1.92075416       3.95062299      20.00208375      -0.07562334      -0.44321550      -0.07132729
Sb       5.40732520       0.45600125      21.83744052       0.38906627      -0.86422491      -0.27536849
Sb      15.14670242       4.13664670      20.40660736       0.07962681       0.16929146      -0.22881327
Sb       2.10598036       0.81604810      30.76867835      -0.18777358       0.09050797       0.30717921
Sb       4.11180085       4.73308229      30.50954675       0.32403510      -0.04511566       0.86321729
Sb       6.37894101       0.96425445      30.63414228       0.19841383       0.40597770       0.38859139
Sb       0.06461235       4.83460343      30.83606729      -0.47919269      -0.50425144      -0.14582834
Te       4.58280702       7.81589066      15.08461245      -0.24464355       0.18545007       0.17500702
Te      10.66356598       3.91815962      15.18400104      -0.47749037      -0.04045991      -0.28663661
Te       8.85853390       7.60553967      15.04700261      -0.33977283       0.01449048      -0.09304128
Te       6.65858046       3.62961151      15.16945112       0.03345494      -0.28347929      -0.24853852
Te       7.87841313       1.93156852      23.10934759       0.78411139      -0.37126601      -0.61799267
Te      10.71927141       6.07228065      22.14779821      -0.06552791      -0.52463231       0.10673446
Te      12.97233846       2.93420865      21.95279960      -0.58622849       0.38721071       0.34393904
Te       7.25712980       6.70149689      23.09435510      -0.40036164       0.33782933       0.06470155
Te      10.89653925       2.52702116      25.01430273       0.07654508      -0.25556328      -0.07296431
Te      13.19385810       5.12778953      25.14361919       0.09620220      -0.06917193       0.76398916
Te      15.02949863       0.96011563      25.21513670      -0.38180573      -0.01020059       0.06278711
Te       8.77832191       4.81287941      25.29890569       0.32018565      -0.17947534       0.19625128
Te      10.85831826       1.17577170      18.73146472      -0.15509331      -0.16683580       0.10276159
Te      13.02644798       5.07608144      18.45535809      -0.24977033       0.23605375       0.28216135
Te      15.09799530       1.72341684      18.54258138      -0.00661313      -0.82046370       0.25048484
Te       8.63149115       5.35060665      18.61521228       0.09699358       0.03001737      -0.18384673
Te       8.50350453      -0.24258895      32.24748296      -0.03823770      -0.23607535      -0.12264085
Te      10.49016174       3.63086347      32.27632297      -0.17245160      -0.49196748      -0.28836850
Te      12.85195051      -0.38392239      32.51914486      -0.00387594       0.17984764       0.35973101
Te       6.35524764       3.53642640      32.25178898      -0.07728299       0.10423869      -0.67127698
Te       9.05870466       2.51110112      28.84895104      -0.45081903      -0.14324798       0.29594246
Te      10.44856021       6.51445896      28.85804933      -0.34949751       0.23642322       0.00740581
Te      12.89259906       1.94122027      28.68487400       0.76780982      -0.76267996       0.43702377
Te       6.16233362       5.96896354      28.73373624       0.16383275       0.30509687      -0.06264621
Sb       8.51641189       2.53125981      17.09998847       0.09351771       0.02075857       0.05324035
Sb      10.91124296       6.34260309      16.65879856      -0.48213044       0.16597834       0.51075838
Sb      12.79298362       2.76906407      16.64666466       0.20773254      -0.62734531       0.20343802
Sb       6.63732192       6.26200819      16.43472967       0.10623747       0.36825345       0.18837470
Sb       8.74391345       1.24027213      26.31451847      -0.15626882      -0.54274805      -0.12907015
Sb      11.30596045       3.86739785      27.48854289       0.11039057       0.95291511      -0.37853401
Sb      12.12924616      -0.02313450      26.14801889       0.11993733       0.87351302      -0.56762270
Sb      -2.12640401       3.38762131      26.84422138       0.05684401       0.19712776      -0.13898458
Sb       9.50985508      -0.76327281      20.61606662      -0.35624280       0.00628455      -0.29700947
Sb      10.26787655       3.72526985      20.51803338       0.33244441       0.34105915       0.42012134
Sb      13.19433381       0.43225421      20.67562204       0.10102687      -0.14709255      -0.72297878
Sb       6.75499135       4.10177093      20.77338855       0.17910022       0.16337844      -0.55518396
Sb      10.88096468       0.91321951      30.96553020      -0.44192970       0.30061544      -0.02911312
Sb      12.50166638       4.57288026      30.47201925      -0.10090886       0.09579288      -0.05539210
Sb      15.27472514       1.06461885      31.23213894      -0.11212375       0.38232433      -0.36271838
Sb       8.37006627       5.01067871      30.55218382      -0.02758588      -0.36762661       0.36449835
Cr       3.58697879       3.13992009      24.60489405      -0.21132025       0.09007886       0.15971667
Cr       5.61155855       4.62646480      23.16084876      -0.27287709       0.03637211       0.15984266
Cr       6.48847125       3.61575894      24.52326656      -0.13138363      -0.19017293       0.43526334
Cr       8.50152275       4.39689545      22.64389362       0.31025425      -0.06951492       0.72285614
82
Lattice="17.108599718724335 0.0 0.0 -4.269160213612439 7.403643876679644 0.0 0.0895635195275219 0.05165086255082877 47.428887855240575" Properties=species:S:1:pos:R:3:forces:R:3 energy=-179658.21012013056 free_energy=-179658.21012013056 stress="-0.004355739726506199 0.006887100271611087 0.0021273711944171294 0.006887100271611087 -0.013395001448144801 -0.0006170019174140315 0.0021273711944171294 -0.0006170019174140315 0.00010375181051753804" pbc="T T T"
Te      12.60778960       8.05680271      15.35689520      -0.32820595      -0.05346686      -0.56680252
Te       2.17394650       3.58021391      15.40890769       0.38916037       0.29915968       0.00265312
Te      -0.02650067       8.06033444      15.06173328      -0.08711489       0.07549016       0.50761727
Te      15.07201443       4.08349690      15.38640286       0.06497563      -0.43843685      -0.10657634
Te      -0.15008761       2.72473809      22.31772078      -0.08451756      -0.35429467       0.30952945
Te       2.04243351       6.33357339      22.56904045       0.02648133       0.20669715      -0.36756954
Te       4.43162826       2.71268895      22.46986856       0.19074603      -0.03217324      -0.39552488
Te      -2.35741449       6.36182708      22.66898190       0.41802949       0.05950304      -1.01322830
Te       2.23496672       1.22111881      25.29825559       0.18207678       0.53031394       0.05160693
Te       4.00567427       4.58625977      25.14509438       0.94373499      -0.28467717      -0.33119203
Te       6.46087153       0.96878357      24.94828652       0.72459215       0.78345961      -0.23006411
Te       0.58210704       4.62929701      25.11641557      -0.82037885      -0.24667164       1.12020856
Te       2.24340892       1.41867499      18.88027246       0.15706355       0.10395047       0.01085648
Te       4.08384655       5.45062494      18.78224662      -0.58779403       0.17155094      -0.08272190
Te       6.60442164       1.19079105      18.58933296      -0.23427532      -0.32666046       0.80079682
Te      -0.37347211       5.36918646      18.71495216       0.38541865       0.36443356       0.18251541
Te       0.28130954      -0.23082793      32.16710079       0.08026033      -0.18956152       0.17130798
Te       2.26430743       3.38579394      32.06631415      -0.05569369       0.20232371      -0.07265526
Te       4.40975470      -0.22390995      32.25381284       0.14032438      -0.33556599      -0.11106343
Te      -2.02803065       3.46035578      32.34739653      -0.18967619       0.13284684      -0.52961717
Te       0.09518329       2.04309247      28.69355881      -0.09044344       0.52742325       0.13479060
Te       2.17228548       6.20206164      28.76347486       0.07339265      -0.26605981      -0.20789889
Te       4.66139721       2.21029881      28.65539254       0.08380588      -0.31994396      -0.12393463
Te      -2.11643345       5.95186046      28.56638374       0.38266731      -0.37208645       0.15468451
Sb      -0.05366442       2.88625659      17.10123440      -0.18208450      -0.28171295       0.23036442
Sb       1.82452628       6.30945284      16.57715259      -0.08859687      -0.02360273      -0.00701834
Sb       4.59162120       2.91541333      17.09038281      -0.57822799      -0.12212252      -0.26463234
Sb      -2.25119845       6.72419229      16.50867847       0.46121451      -0.07252902       0.33509727
Sb       0.14679098      -0.24292359      26.72232674      -0.22699293       0.22944010      -0.15205710
Sb       2.23414808       3.51272843      27.40281010       0.23431852      -0.26351673      -0.66224804
Sb       4.48852544      -0.17984808      26.72113638      -0.44236524       0.27275291       0.11328640
Sb       6.88067237       3.65232453      26.66437908       0.03026086      -0.62098646       0.52645677
Sb      12.88857042       7.68642705      20.66870185      -0.29467645      -0.14417075       0.11532580
Sb       1.81951259       3.86680784      20.54702231       0.40785564       0.20018506      -0.12203355
Sb       4.15069723       0.07534805      20.82875105      -0.31176554       0.37683785       0.25718899
Sb      14.85882640       4.00460187      20.71159617      -0.27728988       0.14463844       0.08504001
Sb       2.43198408       0.87700653      30.46794309      -0.08070616       0.26974935       0.07299825
Sb       4.39981032       4.78558957      30.50424711      -0.24889590      -0.47221909      -0.36483877
Sb       6.72124366       1.06237162      30.73660682      -0.16411917      -0.10103895       0.49215105
Sb       0.13603656       4.72753822      30.58742463      -0.13375161      -0.09102785       0.32631721
Te       4.02720968       7.63472054      15.15537101       0.24644641       0.13805538      -0.18612704
Te      10.65671865       4.05686636      15.33166122       0.35558382      -0.10500694      -0.20854989
Te       8.38656036       7.81299035      15.24097681       0.24634819      -0.03098848       0.08657701
Te       6.38333272       4.13386365      15.15837696       0.16097728      -0.01608251       0.46464873
Te       8.15728283       2.95026712      22.10942807       0.68721191      -0.19619857      -0.88309346
Te      10.71331254       6.42685990      22.24857934      -0.28362173      -0.11743334      -0.24583654
Te      12.78617719       2.67835993      22.25998331      -0.47846019      -0.12970007      -0.15095358
Te       6.37183212       5.78323560      22.31197977      -0.24317108       0.25245353      -0.23218013
Te      10.82344555       1.04508792      25.00067488      -0.08685572       0.04831000       0.15421117
Te      13.13418509       4.71469253      25.17891932      -0.43202992      -0.05282049      -0.31135417
Te      15.03579451       1.07553243      24.97195177       0.16674401      -0.21693117       0.24294611
Te       8.97945836       4.81280323      24.96220499       0.14795696       0.35341407      -0.27222275
Te      10.62565023       1.45003263      18.81125764      -0.26542501       0.49980240       0.06838080
Te      12.82844679       5.24830282      18.78651166       0.01282672       0.40880617      -0.31139376
Te      14.76558055       1.50559240      18.91079112       0.31756441      -0.07672737       0.00290226
Te       8.53061282       5.26255662      18.72546476       0.04116850      -0.15695813      -0.53540421
Te       9.01992251      -0.43917386      32.22101219      -0.33608715       0.40746020       0.29212334
Te      10.70292210       3.57486275      32.25006494      -0.13699712      -0.13641399       0.05054840
Te      13.26427260      -0.47802729      32.33224031      -0.28422363      -0.08123092      -0.61733601
Te       6.37911164       3.61708945      32.11693749       0.57789220       0.04277236      -0.01902462
Te       8.85222039       1.96997519      28.77767226       0.14396686       0.47477631      -0.45980195
Te      10.82736647       6.02809792      28.58335589      -0.04974133      -0.35329657       0.13270158
Te      12.96562362       2.26025960      28.53554086       0.33110409      -0.10567748       0.29111341
Te       6.45724669       5.97739411      28.42845971       0.25180356       0.13561952       0.59805094
Sb       8.46736927       2.68990623      16.78389688      -0.08670480       0.26169074      -0.24298468
Sb      10.59098179       6.52456615      16.80191334      -0.15252324       0.33673070      -0.03868610
Sb      12.75601048       2.78065953      16.94990961       0.05055740      -0.04742220      -0.18675902
Sb       6.18613913       6.69005044      16.82025636       0.24477005      -0.65472962      -0.30266152
Sb       8.68060353      -0.24941790      26.63434071      -0.06871813       0.22148203      -0.40870487
Sb      10.85343881       3.51400310      26.73713850       0.33615657      -0.40117514       0.17717086
Sb      12.91451458      -0.25501533      26.72578700       0.04292431       0.48512346      -0.26213091
Sb      -2.00441711       3.32926839      26.71418514       0.38050476       0.10034501       0.28769050
Sb       8.43848750       0.22916806      21.09096265       0.48466863      -0.29800603       0.00146373
Sb      10.79645934       4.08010077      20.46109248      -0.26444953      -0.15842958       0.59000390
Sb      12.59371217       0.06833689      20.63002497       0.58494268       0.51594996       0.72901599
Sb       6.29339668       3.93387573      19.91491498      -0.43750534      -0.44878426       1.01645992
Sb      10.97122553       1.11577687      30.69033207       0.28625583      -0.61031458       0.14872778
Sb      12.95478999       4.68287142      30.60967960       0.37011878       0.13591494      -0.04593867
Sb      15.21538926       0.99150743      30.75519690      -0.45644023      -0.07783629       0.10255719
Sb       8.82706976       4.59400703      30.37898315      -0.53965064       0.56864189       0.35011277
Cr       2.14277689       3.89979767      23.18035082       0.55158570      -0.19064987      -0.19975080
Cr       6.80643392       3.51256260      24.16031986      -2.28628278      -0.26276571       0.04437287
83
Lattice="17.108599718724335 0.0 0.0 -4.269160213612439 7.403643876679644 0.0 0.0895635195275219 0.05165086255082877 47.428887855240575" Properties=species:S:1:pos:R:3:forces:R:3 energy=-181933.33741462327 free_energy=-181933.33741462327 stress="-0.0026498028774656177 0.009098023809011367 -0.0010338454747145826 0.009098023809011367 -0.01200858344919363 -0.0002488207137190514 -0.0010338454747145826 -0.0002488207137190514 0.0018271336542469087" pbc="T T T"
Te      13.34479129       6.99293711      15.18238085      -0.66537502       0.42957709      -0.22297429
Te       2.27643146       3.69441711      14.57332934      -0.19404758       0.11785140       0.67581807
Te       0.27438125       7.29653295      14.62130694       0.07376058      -0.85046590       0.43717187
Te      15.22793309       4.08592171      14.74793527      -0.15819664      -0.13767383       0.16111509
Te       0.13494235       2.23793981      22.44259125       0.09309116       0.19120754      -0.13386526
Te       1.47997194       6.55825560      21.65412734       0.47958427       0.65341244       0.15993959
Te       4.43325505       1.85410630      21.62777734      -0.19979220      -0.09222547       0.05076926
Te      -1.95492438       6.13256764      21.79055381      -0.31307295       0.86740973       0.14979298
Te       2.41403499       1.51366493      25.38991549      -0.40899309       0.17565725      -1.14252445
Te       4.47930804       5.11341998      25.86610113      -0.39627385       1.02917634       0.90133261
Te       6.82511998      -0.14414539      24.73821631      -0.08717068       0.47307887      -0.06655043
Te      -0.25549636       4.75548031      25.10988623       0.67470709       0.24385345       0.16514478
Te       2.09098663       1.53383904      18.37547884      -0.07100744      -0.12930849       0.31235047
Te       4.32951439       4.42494980      18.44206305       0.07500371       1.24494538      -0.09458909
Te       6.21650128       1.23756274      18.34760888       0.60434834      -0.08887918      -0.54146481
Te       0.55528327       4.25285430      18.31510977      -0.03000015       0.79621717       0.42429630
Te       0.00574566      -0.34511166      32.18622241      -0.34641424       0.24600624       0.15375865
Te       2.05363681       3.70789836      32.49561823      -0.12076549      -0.28148335       0.22635169
Te       4.20953497       0.40342378      32.15176624       0.24649115      -0.38181859       0.88967137
Te      -1.89227698       3.97214138      32.80900115      -0.26734048      -0.19247972      -0.32590892